lj.lammps - created by mBuild; units = lj

8 atoms
7 bonds
12 angles
9 dihedrals
0 impropers

2 atom types
2 bond types
2 angle types
1 dihedral types

0.000000 0.204000 xlo xhi
0.000000 0.226800 ylo yhi
0.000000 0.189886 zlo zhi

Masses

1	1.000000	# opls_135
2	0.083920	# opls_140

Pair Coeffs # lj 
#	reduced_epsilon 		reduced_sigma 
1	1.00000		1.00000		# opls_135
2	0.45455		0.71429		# opls_140

Bond Coeffs # harmonic
#	reduced_k		reduced_req
1	52807151.8448		0.0311		# opls_135	opls_140
2	41624460.4032		0.0437		# opls_135	opls_135

Angle Coeffs # harmonic
#	reduced_k		theteq(deg)
1	58243.179536		110.70000	# opls_135	opls_135	opls_140
2	51254.0		107.80000	# opls_140	opls_135	opls_140

Dihedral Coeffs # opls
#	f1	f2	f3	f4 (all lj reduced units)
1	0.00050	0.00000		4.54550		-0.00000	# opls_140	opls_135	opls_135	opls_140

Atoms

1	0	1	-8.7939e-12	0.000000	-0.040000	-0.000000
2	0	2	2.9313e-12	-0.030571	-0.040000	-0.000000
3	0	2	2.9313e-12	0.010200	-0.061971	0.018657
4	0	2	2.9313e-12	0.010200	-0.045171	-0.028371
5	0	1	-8.7939e-12	0.000000	0.000000	0.000000
6	0	2	2.9313e-12	0.030571	0.000000	0.000000
7	0	2	2.9313e-12	-0.010200	0.021971	0.018657
8	0	2	2.9313e-12	-0.010200	0.005171	-0.028371

Bonds

1	1	1	3
2	1	1	2
3	1	4	1
4	2	5	1
5	1	5	6
6	1	7	5
7	1	8	5

Angles

1	1	1	5	6
2	1	1	5	7
3	1	1	5	8
4	2	2	1	3
5	2	2	1	4
6	1	2	1	5
7	2	3	1	4
8	1	3	1	5
9	1	4	1	5
10	2	6	5	7
11	2	6	5	8
12	2	7	5	8

Dihedrals

1	1	2	1	5	6
2	1	2	1	5	7
3	1	2	1	5	8
4	1	3	1	5	6
5	1	3	1	5	7
6	1	3	1	5	8
7	1	4	1	5	6
8	1	4	1	5	7
9	1	4	1	5	8
