files/CLP.lammps - created by mBuild; units = lj

47 atoms
42 bonds
51 angles
6 dihedrals
0 impropers

9 atom types
10 bond types
16 angle types
2 dihedral types

0.000000 4.728616 xlo xhi
0.000000 5.500000 ylo yhi
0.000000 2.148172 zlo zhi

Masses

1	3.000000	# BBD
2	3.000000	# BBG
3	3.000000	# BBK
4	3.000000	# BBO
5	3.000000	# BBP
6	1.000000	# HBG
7	1.000000	# HBP
8	1.000000	# INA
9	1.000000	# INC

Pair Coeffs # lj 
#	reduced_epsilon 		reduced_sigma 
1	0.00000		0.00000		# BBD
2	0.00000		0.00000		# BBG
3	0.00000		0.00000		# BBK
4	0.00000		0.00000		# BBO
5	0.00000		0.00000		# BBP
6	0.00000		0.00000		# HBG
7	0.00000		0.00000		# HBP
8	0.00000		0.00000		# INA
9	0.00000		0.00000		# INC

Bond Coeffs # harmonic
#	reduced_k		reduced_req
1	1.195		0.5		# BBG	BBK
2	1.195		0.5		# BBG	BBO
3	1.195		0.5		# BBK	BBP
4	1.195		0.5		# BBO	BBP
5	1.195		0.37		# BBD	HBP
6	1.195		0.5		# BBD	BBO
7	1.195		0.5		# BBG	BBP
8	1.195		0.37		# BBP	HBP
9	1.195		0.37		# BBG	HBG
10	1.195		0.5		# BBD	BBG

Angle Coeffs # harmonic
#	reduced_k		theteq(deg)
1	35.851		90.00000	# BBO	BBG	HBG
2	2.39		180.00000	# BBG	BBD	BBO
3	35.851		90.00000	# BBD	BBG	HBG
4	35.851		90.00000	# BBG	BBD	HBP
5	35.851		90.00000	# BBO	BBP	HBP
6	2.39		180.00000	# BBG	BBO	BBP
7	2.39		180.00000	# BBG	BBP	BBO
8	2.39		180.00000	# BBD	BBG	BBO
9	35.851		90.00000	# BBP	BBG	HBG
10	35.851		90.00000	# BBG	BBP	HBP
11	35.851		90.00000	# BBK	BBG	HBG
12	35.851		90.00000	# BBO	BBD	HBP
13	2.39		180.00000	# BBG	BBK	BBP
14	35.851		90.00000	# BBK	BBP	HBP
15	2.39		180.00000	# BBK	BBG	BBP
16	2.39		180.00000	# BBD	BBO	BBG

Dihedral Coeffs # charmm
#k, n, phi, weight
1	3.58500	1	0	1.00000	# HBG	BBG	BBP	HBP
2	3.58500	1	0	1.00000	# HBG	BBG	BBD	HBP

Atoms

1	0	5	0.0000e+00	-7.286160	15.000000	-0.740000
2	0	7	0.0000e+00	-4.081866	15.000000	1.110000
3	0	3	0.0000e+00	-7.286160	10.000000	-0.740000
4	0	2	0.0000e+00	-7.286160	5.000000	-0.740000
5	0	6	0.0000e+00	-4.081866	5.000000	1.110000
6	0	5	0.0000e+00	-7.286160	-0.000000	-0.740000
7	0	7	0.0000e+00	-4.081866	-0.000000	1.110000
8	0	4	0.0000e+00	-7.286160	-5.000000	-0.740000
9	0	2	0.0000e+00	-7.286160	-10.000000	-0.740000
10	0	6	0.0000e+00	-4.081866	-10.000000	1.110000
11	0	1	0.0000e+00	-7.286160	-15.000000	-0.740000
12	0	7	0.0000e+00	-4.081866	-15.000000	1.110000
13	0	4	0.0000e+00	-7.286160	-20.000000	-0.740000
14	0	2	0.0000e+00	-7.286160	-25.000000	-0.740000
15	0	6	0.0000e+00	-4.081866	-25.000000	1.110000
16	0	5	0.0000e+00	3.742221	20.000000	-6.481718
17	0	7	0.0000e+00	1.892221	20.000000	-3.277424
18	0	3	0.0000e+00	3.742221	15.000000	-6.481718
19	0	2	0.0000e+00	3.742221	10.000000	-6.481718
20	0	6	0.0000e+00	1.892221	10.000000	-3.277424
21	0	5	0.0000e+00	3.742221	5.000000	-6.481718
22	0	7	0.0000e+00	1.892221	5.000000	-3.277424
23	0	4	0.0000e+00	3.742221	-0.000000	-6.481718
24	0	2	0.0000e+00	3.742221	-5.000000	-6.481718
25	0	6	0.0000e+00	1.892221	-5.000000	-3.277424
26	0	1	0.0000e+00	3.742221	-10.000000	-6.481718
27	0	7	0.0000e+00	1.892221	-10.000000	-3.277424
28	0	4	0.0000e+00	3.742221	-15.000000	-6.481718
29	0	2	0.0000e+00	3.742221	-20.000000	-6.481718
30	0	6	0.0000e+00	1.892221	-20.000000	-3.277424
31	0	5	0.0000e+00	3.742221	25.000000	6.481718
32	0	7	0.0000e+00	1.892221	25.000000	3.277424
33	0	3	0.0000e+00	3.742221	20.000000	6.481718
34	0	2	0.0000e+00	3.742221	15.000000	6.481718
35	0	6	0.0000e+00	1.892221	15.000000	3.277424
36	0	5	0.0000e+00	3.742221	10.000000	6.481718
37	0	7	0.0000e+00	1.892221	10.000000	3.277424
38	0	4	0.0000e+00	3.742221	5.000000	6.481718
39	0	2	0.0000e+00	3.742221	-0.000000	6.481718
40	0	6	0.0000e+00	1.892221	-0.000000	3.277424
41	0	1	0.0000e+00	3.742221	-5.000000	6.481718
42	0	7	0.0000e+00	1.892221	-5.000000	3.277424
43	0	4	0.0000e+00	3.742221	-10.000000	6.481718
44	0	2	0.0000e+00	3.742221	-15.000000	6.481718
45	0	6	0.0000e+00	1.892221	-15.000000	3.277424
46	0	9	0.0000e+00	20.000000	10.000000	10.000000
47	0	8	0.0000e+00	35.000000	10.000000	10.000000

Bonds

1	8	1	2
2	3	1	3
3	1	4	3
4	9	5	4
5	8	6	7
6	7	6	4
7	2	8	9
8	4	8	6
9	10	9	11
10	9	9	10
11	5	11	12
12	6	13	11
13	9	14	15
14	2	14	13
15	8	16	17
16	3	16	18
17	1	19	18
18	9	19	20
19	7	19	21
20	8	22	21
21	2	23	24
22	4	23	21
23	10	24	26
24	9	25	24
25	5	26	27
26	6	28	26
27	2	28	29
28	9	30	29
29	3	31	33
30	8	32	31
31	1	34	33
32	7	34	36
33	9	34	35
34	4	36	38
35	8	36	37
36	2	39	38
37	9	39	40
38	10	39	41
39	5	42	41
40	6	43	41
41	2	44	43
42	9	44	45

Angles

1	13	1	3	4
2	14	2	1	3
3	11	3	4	5
4	15	3	4	6
5	10	4	6	7
6	7	4	6	8
7	9	5	4	6
8	6	6	8	9
9	5	7	6	8
10	1	8	9	10
11	8	8	9	11
12	4	9	11	12
13	2	9	11	13
14	3	10	9	11
15	16	11	13	14
16	12	12	11	13
17	1	13	14	15
18	13	16	18	19
19	14	17	16	18
20	11	18	19	20
21	15	18	19	21
22	10	19	21	22
23	7	19	21	23
24	9	20	19	21
25	6	21	23	24
26	5	22	21	23
27	1	23	24	25
28	8	23	24	26
29	4	24	26	27
30	2	24	26	28
31	3	25	24	26
32	16	26	28	29
33	12	27	26	28
34	1	28	29	30
35	13	31	33	34
36	14	32	31	33
37	11	33	34	35
38	15	33	34	36
39	10	34	36	37
40	7	34	36	38
41	9	35	34	36
42	6	36	38	39
43	5	37	36	38
44	1	38	39	40
45	8	38	39	41
46	4	39	41	42
47	2	39	41	43
48	3	40	39	41
49	16	41	43	44
50	12	42	41	43
51	1	43	44	45

Dihedrals

1	1	5	4	6	7
2	2	10	9	11	12
3	1	20	19	21	22
4	2	25	24	26	27
5	1	35	34	36	37
6	2	40	39	41	42
