files/CLP.lammps - created by mBuild; units = lj

47 atoms
42 bonds
51 angles
6 dihedrals
0 impropers

9 atom types
10 bond types
16 angle types
2 dihedral types

0.000000 4.728616 xlo xhi
0.000000 5.500000 ylo yhi
0.000000 2.148172 zlo zhi

Masses

1	3.000000	# BBD
2	3.000000	# BBG
3	3.000000	# BBK
4	3.000000	# BBO
5	3.000000	# BBP
6	1.000000	# HBG
7	1.000000	# HBP
8	1.000000	# INA
9	1.000000	# INC

Pair Coeffs # lj 
#	reduced_epsilon 		reduced_sigma 
1	0.00000		0.00000		# BBD
2	0.00000		0.00000		# BBG
3	0.00000		0.00000		# BBK
4	0.00000		0.00000		# BBO
5	0.00000		0.00000		# BBP
6	0.00000		0.00000		# HBG
7	0.00000		0.00000		# HBP
8	0.00000		0.00000		# INA
9	0.00000		0.00000		# INC

Bond Coeffs # harmonic
#	reduced_k		reduced_req
1	999.976		0.5		# BBG	BBP
2	999.976		0.5		# BBK	BBP
3	999.976		0.5		# BBG	BBK
4	999.976		0.37		# BBP	HBP
5	999.976		0.5		# BBO	BBP
6	999.976		0.37		# BBD	HBP
7	999.976		0.5		# BBD	BBO
8	999.976		0.5		# BBG	BBO
9	999.976		0.37		# BBG	HBG
10	999.976		0.5		# BBD	BBG

Angle Coeffs # harmonic
#	reduced_k		theteq(deg)
1	300.001168		90.00000	# BBK	BBP	HBP
2	300.001168		90.00000	# BBG	BBD	HBP
3	19.99952		180.00000	# BBG	BBK	BBP
4	19.99952		180.00000	# BBK	BBG	BBP
5	300.001168		90.00000	# BBK	BBG	HBG
6	300.001168		90.00000	# BBP	BBG	HBG
7	19.99952		180.00000	# BBG	BBD	BBO
8	300.001168		90.00000	# BBO	BBD	HBP
9	19.99952		180.00000	# BBG	BBO	BBP
10	300.001168		90.00000	# BBD	BBG	HBG
11	300.001168		90.00000	# BBO	BBG	HBG
12	19.99952		180.00000	# BBG	BBP	BBO
13	300.001168		90.00000	# BBG	BBP	HBP
14	19.99952		180.00000	# BBD	BBG	BBO
15	19.99952		180.00000	# BBD	BBO	BBG
16	300.001168		90.00000	# BBO	BBP	HBP

Dihedral Coeffs # charmm
#k, n, phi, weight
1	3.58500	1	0	1.00000	# HBG	BBG	BBP	HBP
2	3.58500	1	0	1.00000	# HBG	BBG	BBD	HBP

Atoms

1	0	5	0.0000e+00	-0.728616	1.500000	-0.074000
2	0	7	0.0000e+00	-0.408187	1.500000	0.111000
3	0	3	0.0000e+00	-0.728616	1.000000	-0.074000
4	0	2	0.0000e+00	-0.728616	0.500000	-0.074000
5	0	6	0.0000e+00	-0.408187	0.500000	0.111000
6	0	5	0.0000e+00	-0.728616	-0.000000	-0.074000
7	0	7	0.0000e+00	-0.408187	-0.000000	0.111000
8	0	4	0.0000e+00	-0.728616	-0.500000	-0.074000
9	0	2	0.0000e+00	-0.728616	-1.000000	-0.074000
10	0	6	0.0000e+00	-0.408187	-1.000000	0.111000
11	0	1	0.0000e+00	-0.728616	-1.500000	-0.074000
12	0	7	0.0000e+00	-0.408187	-1.500000	0.111000
13	0	4	0.0000e+00	-0.728616	-2.000000	-0.074000
14	0	2	0.0000e+00	-0.728616	-2.500000	-0.074000
15	0	6	0.0000e+00	-0.408187	-2.500000	0.111000
16	0	5	0.0000e+00	0.374222	2.000000	-0.648172
17	0	7	0.0000e+00	0.189222	2.000000	-0.327742
18	0	3	0.0000e+00	0.374222	1.500000	-0.648172
19	0	2	0.0000e+00	0.374222	1.000000	-0.648172
20	0	6	0.0000e+00	0.189222	1.000000	-0.327742
21	0	5	0.0000e+00	0.374222	0.500000	-0.648172
22	0	7	0.0000e+00	0.189222	0.500000	-0.327742
23	0	4	0.0000e+00	0.374222	-0.000000	-0.648172
24	0	2	0.0000e+00	0.374222	-0.500000	-0.648172
25	0	6	0.0000e+00	0.189222	-0.500000	-0.327742
26	0	1	0.0000e+00	0.374222	-1.000000	-0.648172
27	0	7	0.0000e+00	0.189222	-1.000000	-0.327742
28	0	4	0.0000e+00	0.374222	-1.500000	-0.648172
29	0	2	0.0000e+00	0.374222	-2.000000	-0.648172
30	0	6	0.0000e+00	0.189222	-2.000000	-0.327742
31	0	5	0.0000e+00	0.374222	2.500000	0.648172
32	0	7	0.0000e+00	0.189222	2.500000	0.327742
33	0	3	0.0000e+00	0.374222	2.000000	0.648172
34	0	2	0.0000e+00	0.374222	1.500000	0.648172
35	0	6	0.0000e+00	0.189222	1.500000	0.327742
36	0	5	0.0000e+00	0.374222	1.000000	0.648172
37	0	7	0.0000e+00	0.189222	1.000000	0.327742
38	0	4	0.0000e+00	0.374222	0.500000	0.648172
39	0	2	0.0000e+00	0.374222	-0.000000	0.648172
40	0	6	0.0000e+00	0.189222	-0.000000	0.327742
41	0	1	0.0000e+00	0.374222	-0.500000	0.648172
42	0	7	0.0000e+00	0.189222	-0.500000	0.327742
43	0	4	0.0000e+00	0.374222	-1.000000	0.648172
44	0	2	0.0000e+00	0.374222	-1.500000	0.648172
45	0	6	0.0000e+00	0.189222	-1.500000	0.327742
46	0	9	0.0000e+00	2.000000	1.000000	1.000000
47	0	8	0.0000e+00	3.500000	1.000000	1.000000

Bonds

1	4	1	2
2	2	1	3
3	3	4	3
4	1	4	6
5	9	4	5
6	5	6	8
7	4	7	6
8	8	8	9
9	9	9	10
10	10	9	11
11	6	11	12
12	7	13	11
13	8	13	14
14	9	15	14
15	4	16	17
16	2	16	18
17	3	18	19
18	9	20	19
19	1	21	19
20	4	22	21
21	5	23	21
22	8	23	24
23	9	25	24
24	10	26	24
25	6	27	26
26	8	28	29
27	7	28	26
28	9	30	29
29	2	31	33
30	4	31	32
31	3	33	34
32	9	34	35
33	1	36	34
34	5	36	38
35	4	37	36
36	8	39	38
37	10	39	41
38	9	39	40
39	6	41	42
40	7	41	43
41	9	44	45
42	8	44	43

Angles

1	3	1	3	4
2	1	2	1	3
3	5	3	4	5
4	4	3	4	6
5	13	4	6	7
6	12	4	6	8
7	6	5	4	6
8	9	6	8	9
9	16	7	6	8
10	11	8	9	10
11	14	8	9	11
12	2	9	11	12
13	7	9	11	13
14	10	10	9	11
15	15	11	13	14
16	8	12	11	13
17	11	13	14	15
18	3	16	18	19
19	1	17	16	18
20	5	18	19	20
21	4	18	19	21
22	13	19	21	22
23	12	19	21	23
24	6	20	19	21
25	9	21	23	24
26	16	22	21	23
27	11	23	24	25
28	14	23	24	26
29	2	24	26	27
30	7	24	26	28
31	10	25	24	26
32	15	26	28	29
33	8	27	26	28
34	11	28	29	30
35	3	31	33	34
36	1	32	31	33
37	5	33	34	35
38	4	33	34	36
39	13	34	36	37
40	12	34	36	38
41	6	35	34	36
42	9	36	38	39
43	16	37	36	38
44	11	38	39	40
45	14	38	39	41
46	2	39	41	42
47	7	39	41	43
48	10	40	39	41
49	15	41	43	44
50	8	42	41	43
51	11	43	44	45

Dihedrals

1	1	5	4	6	7
2	2	10	9	11	12
3	1	20	19	21	22
4	2	25	24	26	27
5	1	35	34	36	37
6	2	40	39	41	42
