files/CLP.lammps - created by mBuild; units = lj

47 atoms
42 bonds
51 angles
6 dihedrals
0 impropers

9 atom types
10 bond types
16 angle types
2 dihedral types

0.000000 0.922862 xlo xhi
0.000000 1.000000 ylo yhi
0.000000 0.664817 zlo zhi

Masses

1	3.000000	# BBD
2	3.000000	# BBG
3	3.000000	# BBK
4	3.000000	# BBO
5	3.000000	# BBP
6	1.000000	# HBG
7	1.000000	# HBP
8	1.000000	# INA
9	1.000000	# INC

Pair Coeffs # lj 
#	reduced_epsilon 		reduced_sigma 
1	0.00000		0.00000		# BBD
2	0.00000		0.00000		# BBG
3	0.00000		0.00000		# BBK
4	0.00000		0.00000		# BBO
5	0.00000		0.00000		# BBP
6	0.00000		0.00000		# HBG
7	0.00000		0.00000		# HBP
8	0.00000		0.00000		# INA
9	0.00000		0.00000		# INC

Bond Coeffs # harmonic
#	reduced_k		reduced_req
1	999.976		0.5		# BBD	BBO
2	999.976		0.37		# BBP	HBP
3	999.976		0.5		# BBG	BBK
4	999.976		0.5		# BBO	BBP
5	999.976		0.5		# BBG	BBP
6	999.976		0.37		# BBG	HBG
7	999.976		0.37		# BBD	HBP
8	999.976		0.5		# BBK	BBP
9	999.976		0.5		# BBG	BBO
10	999.976		0.5		# BBD	BBG

Angle Coeffs # harmonic
#	reduced_k		theteq(deg)
1	300.001168		90.00000	# BBO	BBD	HBP
2	300.001168		90.00000	# BBO	BBG	HBG
3	300.001168		90.00000	# BBG	BBD	HBP
4	19.99952		180.00000	# BBD	BBG	BBO
5	19.99952		180.00000	# BBD	BBO	BBG
6	300.001168		90.00000	# BBO	BBP	HBP
7	300.001168		90.00000	# BBD	BBG	HBG
8	300.001168		90.00000	# BBP	BBG	HBG
9	19.99952		180.00000	# BBG	BBD	BBO
10	19.99952		180.00000	# BBG	BBO	BBP
11	300.001168		90.00000	# BBK	BBG	HBG
12	19.99952		180.00000	# BBG	BBK	BBP
13	19.99952		180.00000	# BBG	BBP	BBO
14	19.99952		180.00000	# BBK	BBG	BBP
15	300.001168		90.00000	# BBK	BBP	HBP
16	300.001168		90.00000	# BBG	BBP	HBP

Dihedral Coeffs # charmm
#k, n, phi, weight
1	3.58500	1	0	1.00000	# HBG	BBG	BBD	HBP
2	3.58500	1	0	1.00000	# HBG	BBG	BBP	HBP

Atoms

1	0	5	0.0000e+00	-0.728616	1.500000	-0.074000
2	0	7	0.0000e+00	-0.408187	1.500000	0.111000
3	0	3	0.0000e+00	-0.728616	1.000000	-0.074000
4	0	2	0.0000e+00	-0.728616	0.500000	-0.074000
5	0	6	0.0000e+00	-0.408187	0.500000	0.111000
6	0	5	0.0000e+00	-0.728616	-0.000000	-0.074000
7	0	7	0.0000e+00	-0.408187	-0.000000	0.111000
8	0	4	0.0000e+00	-0.728616	-0.500000	-0.074000
9	0	2	0.0000e+00	-0.728616	-1.000000	-0.074000
10	0	6	0.0000e+00	-0.408187	-1.000000	0.111000
11	0	1	0.0000e+00	-0.728616	-1.500000	-0.074000
12	0	7	0.0000e+00	-0.408187	-1.500000	0.111000
13	0	4	0.0000e+00	-0.728616	-2.000000	-0.074000
14	0	2	0.0000e+00	-0.728616	-2.500000	-0.074000
15	0	6	0.0000e+00	-0.408187	-2.500000	0.111000
16	0	5	0.0000e+00	0.374222	2.000000	-0.648172
17	0	7	0.0000e+00	0.189222	2.000000	-0.327742
18	0	3	0.0000e+00	0.374222	1.500000	-0.648172
19	0	2	0.0000e+00	0.374222	1.000000	-0.648172
20	0	6	0.0000e+00	0.189222	1.000000	-0.327742
21	0	5	0.0000e+00	0.374222	0.500000	-0.648172
22	0	7	0.0000e+00	0.189222	0.500000	-0.327742
23	0	4	0.0000e+00	0.374222	-0.000000	-0.648172
24	0	2	0.0000e+00	0.374222	-0.500000	-0.648172
25	0	6	0.0000e+00	0.189222	-0.500000	-0.327742
26	0	1	0.0000e+00	0.374222	-1.000000	-0.648172
27	0	7	0.0000e+00	0.189222	-1.000000	-0.327742
28	0	4	0.0000e+00	0.374222	-1.500000	-0.648172
29	0	2	0.0000e+00	0.374222	-2.000000	-0.648172
30	0	6	0.0000e+00	0.189222	-2.000000	-0.327742
31	0	5	0.0000e+00	0.374222	2.500000	0.648172
32	0	7	0.0000e+00	0.189222	2.500000	0.327742
33	0	3	0.0000e+00	0.374222	2.000000	0.648172
34	0	2	0.0000e+00	0.374222	1.500000	0.648172
35	0	6	0.0000e+00	0.189222	1.500000	0.327742
36	0	5	0.0000e+00	0.374222	1.000000	0.648172
37	0	7	0.0000e+00	0.189222	1.000000	0.327742
38	0	4	0.0000e+00	0.374222	0.500000	0.648172
39	0	2	0.0000e+00	0.374222	0.000000	0.648172
40	0	6	0.0000e+00	0.189222	0.000000	0.327742
41	0	1	0.0000e+00	0.374222	-0.500000	0.648172
42	0	7	0.0000e+00	0.189222	-0.500000	0.327742
43	0	4	0.0000e+00	0.374222	-1.000000	0.648172
44	0	2	0.0000e+00	0.374222	-1.500000	0.648172
45	0	6	0.0000e+00	0.189222	-1.500000	0.327742
46	0	9	0.0000e+00	2.000000	1.000000	1.000000
47	0	8	0.0000e+00	3.500000	1.000000	1.000000

Bonds

1	8	1	3
2	2	1	2
3	3	3	4
4	6	5	4
5	4	6	8
6	5	6	4
7	2	6	7
8	9	8	9
9	6	9	10
10	10	9	11
11	7	11	12
12	9	13	14
13	1	13	11
14	6	15	14
15	2	16	17
16	8	16	18
17	3	18	19
18	5	19	21
19	6	19	20
20	2	22	21
21	9	23	24
22	4	23	21
23	6	25	24
24	10	26	24
25	7	27	26
26	1	28	26
27	9	28	29
28	6	29	30
29	2	31	32
30	8	31	33
31	3	33	34
32	5	34	36
33	6	35	34
34	2	37	36
35	4	38	36
36	6	39	40
37	9	39	38
38	1	41	43
39	10	41	39
40	7	41	42
41	9	43	44
42	6	45	44

Angles

1	12	1	3	4
2	15	2	1	3
3	11	3	4	5
4	14	3	4	6
5	16	4	6	7
6	13	4	6	8
7	8	5	4	6
8	10	6	8	9
9	6	7	6	8
10	2	8	9	10
11	4	8	9	11
12	3	9	11	12
13	9	9	11	13
14	7	10	9	11
15	5	11	13	14
16	1	12	11	13
17	2	13	14	15
18	12	16	18	19
19	15	17	16	18
20	11	18	19	20
21	14	18	19	21
22	16	19	21	22
23	13	19	21	23
24	8	20	19	21
25	10	21	23	24
26	6	22	21	23
27	2	23	24	25
28	4	23	24	26
29	3	24	26	27
30	9	24	26	28
31	7	25	24	26
32	5	26	28	29
33	1	27	26	28
34	2	28	29	30
35	12	31	33	34
36	15	32	31	33
37	11	33	34	35
38	14	33	34	36
39	16	34	36	37
40	13	34	36	38
41	8	35	34	36
42	10	36	38	39
43	6	37	36	38
44	2	38	39	40
45	4	38	39	41
46	3	39	41	42
47	9	39	41	43
48	7	40	39	41
49	5	41	43	44
50	1	42	41	43
51	2	43	44	45

Dihedrals

1	2	5	4	6	7
2	1	10	9	11	12
3	2	20	19	21	22
4	1	25	24	26	27
5	2	35	34	36	37
6	1	40	39	41	42
