files/CLP.lammps - created by mBuild; units = lj

47 atoms
42 bonds
51 angles
6 dihedrals
0 impropers

9 atom types
10 bond types
16 angle types
2 dihedral types

0.000000 4.728616 xlo xhi
0.000000 5.500000 ylo yhi
0.000000 2.148172 zlo zhi

Masses

1	3.000000	# BBD
2	3.000000	# BBG
3	3.000000	# BBK
4	3.000000	# BBO
5	3.000000	# BBP
6	1.000000	# HBG
7	1.000000	# HBP
8	1.000000	# INA
9	1.000000	# INC

Pair Coeffs # lj 
#	reduced_epsilon 		reduced_sigma 
1	0.00000		0.00000		# BBD
2	0.00000		0.00000		# BBG
3	0.00000		0.00000		# BBK
4	0.00000		0.00000		# BBO
5	0.00000		0.00000		# BBP
6	0.00000		0.00000		# HBG
7	0.00000		0.00000		# HBP
8	0.00000		0.00000		# INA
9	0.00000		0.00000		# INC

Bond Coeffs # harmonic
#	reduced_k		reduced_req
1	999.976		0.5		# BBO	BBP
2	999.976		0.5		# BBG	BBO
3	999.976		0.37		# BBP	HBP
4	999.976		0.5		# BBG	BBK
5	999.976		0.37		# BBG	HBG
6	999.976		0.5		# BBD	BBG
7	999.976		0.37		# BBD	HBP
8	999.976		0.5		# BBG	BBP
9	999.976		0.5		# BBK	BBP
10	999.976		0.5		# BBD	BBO

Angle Coeffs # harmonic
#	reduced_k		theteq(deg)
1	19.99952		180.00000	# BBG	BBK	BBP
2	300.001168		90.00000	# BBO	BBP	HBP
3	19.99952		180.00000	# BBG	BBP	BBO
4	19.99952		180.00000	# BBD	BBG	BBO
5	300.001168		90.00000	# BBK	BBG	HBG
6	19.99952		180.00000	# BBG	BBD	BBO
7	300.001168		90.00000	# BBP	BBG	HBG
8	300.001168		90.00000	# BBK	BBP	HBP
9	19.99952		180.00000	# BBG	BBO	BBP
10	300.001168		90.00000	# BBG	BBD	HBP
11	300.001168		90.00000	# BBO	BBG	HBG
12	19.99952		180.00000	# BBD	BBO	BBG
13	19.99952		180.00000	# BBK	BBG	BBP
14	300.001168		90.00000	# BBG	BBP	HBP
15	300.001168		90.00000	# BBO	BBD	HBP
16	300.001168		90.00000	# BBD	BBG	HBG

Dihedral Coeffs # charmm
#k, n, phi, weight
1	3.58500	1	0	1.00000	# HBG	BBG	BBD	HBP
2	3.58500	1	0	1.00000	# HBG	BBG	BBP	HBP

Atoms

1	0	5	0.0000e+00	-0.728616	1.500000	-0.074000
2	0	7	0.0000e+00	-0.408187	1.500000	0.111000
3	0	3	0.0000e+00	-0.728616	1.000000	-0.074000
4	0	2	0.0000e+00	-0.728616	0.500000	-0.074000
5	0	6	0.0000e+00	-0.408187	0.500000	0.111000
6	0	5	0.0000e+00	-0.728616	-0.000000	-0.074000
7	0	7	0.0000e+00	-0.408187	-0.000000	0.111000
8	0	4	0.0000e+00	-0.728616	-0.500000	-0.074000
9	0	2	0.0000e+00	-0.728616	-1.000000	-0.074000
10	0	6	0.0000e+00	-0.408187	-1.000000	0.111000
11	0	1	0.0000e+00	-0.728616	-1.500000	-0.074000
12	0	7	0.0000e+00	-0.408187	-1.500000	0.111000
13	0	4	0.0000e+00	-0.728616	-2.000000	-0.074000
14	0	2	0.0000e+00	-0.728616	-2.500000	-0.074000
15	0	6	0.0000e+00	-0.408187	-2.500000	0.111000
16	0	5	0.0000e+00	0.374222	2.000000	-0.648172
17	0	7	0.0000e+00	0.189222	2.000000	-0.327742
18	0	3	0.0000e+00	0.374222	1.500000	-0.648172
19	0	2	0.0000e+00	0.374222	1.000000	-0.648172
20	0	6	0.0000e+00	0.189222	1.000000	-0.327742
21	0	5	0.0000e+00	0.374222	0.500000	-0.648172
22	0	7	0.0000e+00	0.189222	0.500000	-0.327742
23	0	4	0.0000e+00	0.374222	-0.000000	-0.648172
24	0	2	0.0000e+00	0.374222	-0.500000	-0.648172
25	0	6	0.0000e+00	0.189222	-0.500000	-0.327742
26	0	1	0.0000e+00	0.374222	-1.000000	-0.648172
27	0	7	0.0000e+00	0.189222	-1.000000	-0.327742
28	0	4	0.0000e+00	0.374222	-1.500000	-0.648172
29	0	2	0.0000e+00	0.374222	-2.000000	-0.648172
30	0	6	0.0000e+00	0.189222	-2.000000	-0.327742
31	0	5	0.0000e+00	0.374222	2.500000	0.648172
32	0	7	0.0000e+00	0.189222	2.500000	0.327742
33	0	3	0.0000e+00	0.374222	2.000000	0.648172
34	0	2	0.0000e+00	0.374222	1.500000	0.648172
35	0	6	0.0000e+00	0.189222	1.500000	0.327742
36	0	5	0.0000e+00	0.374222	1.000000	0.648172
37	0	7	0.0000e+00	0.189222	1.000000	0.327742
38	0	4	0.0000e+00	0.374222	0.500000	0.648172
39	0	2	0.0000e+00	0.374222	-0.000000	0.648172
40	0	6	0.0000e+00	0.189222	-0.000000	0.327742
41	0	1	0.0000e+00	0.374222	-0.500000	0.648172
42	0	7	0.0000e+00	0.189222	-0.500000	0.327742
43	0	4	0.0000e+00	0.374222	-1.000000	0.648172
44	0	2	0.0000e+00	0.374222	-1.500000	0.648172
45	0	6	0.0000e+00	0.189222	-1.500000	0.327742
46	0	9	0.0000e+00	2.000000	1.000000	1.000000
47	0	8	0.0000e+00	3.500000	1.000000	1.000000

Bonds

1	9	1	3
2	3	1	2
3	4	4	3
4	5	4	5
5	8	4	6
6	3	6	7
7	1	8	6
8	2	8	9
9	6	9	11
10	5	9	10
11	7	11	12
12	10	13	11
13	2	14	13
14	5	14	15
15	3	16	17
16	9	16	18
17	4	19	18
18	8	19	21
19	5	19	20
20	3	22	21
21	2	23	24
22	1	23	21
23	6	24	26
24	5	25	24
25	7	26	27
26	10	28	26
27	2	28	29
28	5	30	29
29	3	32	31
30	4	33	34
31	9	33	31
32	5	35	34
33	1	36	38
34	3	36	37
35	8	36	34
36	6	39	41
37	2	39	38
38	5	40	39
39	7	42	41
40	10	43	41
41	2	44	43
42	5	44	45

Angles

1	1	1	3	4
2	8	2	1	3
3	5	3	4	5
4	13	3	4	6
5	14	4	6	7
6	3	4	6	8
7	7	5	4	6
8	9	6	8	9
9	2	7	6	8
10	11	8	9	10
11	4	8	9	11
12	10	9	11	12
13	6	9	11	13
14	16	10	9	11
15	12	11	13	14
16	15	12	11	13
17	11	13	14	15
18	1	16	18	19
19	8	17	16	18
20	5	18	19	20
21	13	18	19	21
22	14	19	21	22
23	3	19	21	23
24	7	20	19	21
25	9	21	23	24
26	2	22	21	23
27	11	23	24	25
28	4	23	24	26
29	10	24	26	27
30	6	24	26	28
31	16	25	24	26
32	12	26	28	29
33	15	27	26	28
34	11	28	29	30
35	1	31	33	34
36	8	32	31	33
37	5	33	34	35
38	13	33	34	36
39	14	34	36	37
40	3	34	36	38
41	7	35	34	36
42	9	36	38	39
43	2	37	36	38
44	11	38	39	40
45	4	38	39	41
46	10	39	41	42
47	6	39	41	43
48	16	40	39	41
49	12	41	43	44
50	15	42	41	43
51	11	43	44	45

Dihedrals

1	2	5	4	6	7
2	1	10	9	11	12
3	2	20	19	21	22
4	1	25	24	26	27
5	2	35	34	36	37
6	1	40	39	41	42
