files/polymer.lammps - created by mBuild; units = lj

40 atoms
37 bonds
34 angles
96 dihedrals
0 impropers

4 atom types
4 bond types
2 angle types
12 dihedral types

0.000000 6.895000 xlo xhi
0.000000 9.500000 ylo yhi
0.000000 0.500000 zlo zhi

Masses

1	3.000000	# BB_pvph
2	3.000000	# BB_pvpy
3	1.000000	# HB_pvph
4	1.000000	# HB_pvpy

Pair Coeffs # lj 
#	reduced_epsilon 		reduced_sigma 
1	0.00000		0.00000		# BB_pvph
2	0.00000		0.00000		# BB_pvpy
3	0.00000		0.00000		# HB_pvph
4	0.00000		0.00000		# HB_pvpy

Bond Coeffs # harmonic
#	reduced_k		reduced_req
1	999.976		0.37		# BB_pvph	HB_pvph
2	999.976		0.37		# BB_pvpy	HB_pvpy
3	50.208		1.0		# BB_pvpy	BB_pvpy
4	50.208		1.0		# BB_pvph	BB_pvph

Angle Coeffs # harmonic
#	reduced_k		theteq(deg)
1	49.998799999999996		90.00000	# BB_pvpy	BB_pvpy	HB_pvpy
2	49.998799999999996		90.00000	# BB_pvph	BB_pvph	HB_pvph

Dihedral Coeffs # charmm
#k, n, phi, weight
1	-0.00810	4	52.57	0.25000	# HB_pvpy	BB_pvpy	BB_pvpy	HB_pvpy
2	0.02500	3	1.00	0.25000	# BB_pvpy	BB_pvpy	BB_pvpy	BB_pvpy
3	0.04250	1	-89.08	0.25000	# HB_pvpy	BB_pvpy	BB_pvpy	HB_pvpy
4	0.00900	1	86.52	0.25000	# BB_pvpy	BB_pvpy	BB_pvpy	BB_pvpy
5	-0.16690	3	161.62	0.25000	# HB_pvph	BB_pvph	BB_pvph	HB_pvph
6	0.03930	4	-16.98	0.25000	# BB_pvpy	BB_pvpy	BB_pvpy	BB_pvpy
7	0.21000	2	-25.52	0.25000	# HB_pvpy	BB_pvpy	BB_pvpy	HB_pvpy
8	-0.01980	3	40.61	0.25000	# HB_pvpy	BB_pvpy	BB_pvpy	HB_pvpy
9	0.93100	1	176.24	0.25000	# HB_pvph	BB_pvph	BB_pvph	HB_pvph
10	0.33970	2	5.94	0.25000	# HB_pvph	BB_pvph	BB_pvph	HB_pvph
11	-0.15410	4	158.57	0.25000	# HB_pvph	BB_pvph	BB_pvph	HB_pvph
12	0.35170	2	-3.03	0.25000	# BB_pvpy	BB_pvpy	BB_pvpy	BB_pvpy

Atoms

1	0	2	0.0000e+00	-0.185000	4.500000	-0.000000
2	0	4	0.0000e+00	0.185000	4.500000	-0.000000
3	0	2	0.0000e+00	-0.185000	3.500000	-0.000000
4	0	4	0.0000e+00	0.185000	3.500000	-0.000000
5	0	2	0.0000e+00	-0.185000	2.500000	-0.000000
6	0	4	0.0000e+00	0.185000	2.500000	-0.000000
7	0	2	0.0000e+00	-0.185000	1.500000	-0.000000
8	0	4	0.0000e+00	0.185000	1.500000	-0.000000
9	0	2	0.0000e+00	-0.185000	0.500000	-0.000000
10	0	4	0.0000e+00	0.185000	0.500000	-0.000000
11	0	2	0.0000e+00	-0.185000	-0.500000	-0.000000
12	0	4	0.0000e+00	0.185000	-0.500000	-0.000000
13	0	2	0.0000e+00	-0.185000	-1.500000	-0.000000
14	0	4	0.0000e+00	0.185000	-1.500000	-0.000000
15	0	2	0.0000e+00	-0.185000	-2.500000	0.000000
16	0	4	0.0000e+00	0.185000	-2.500000	0.000000
17	0	2	0.0000e+00	-0.185000	-3.500000	0.000000
18	0	4	0.0000e+00	0.185000	-3.500000	0.000000
19	0	2	0.0000e+00	-0.185000	-4.500000	0.000000
20	0	4	0.0000e+00	0.185000	-4.500000	0.000000
21	0	1	0.0000e+00	2.790000	2.268000	0.000000
22	0	3	0.0000e+00	3.210000	2.268000	0.000000
23	0	1	0.0000e+00	2.790000	1.134000	0.000000
24	0	3	0.0000e+00	3.210000	1.134000	0.000000
25	0	1	0.0000e+00	2.790000	-0.000000	0.000000
26	0	3	0.0000e+00	3.210000	0.000000	0.000000
27	0	1	0.0000e+00	2.790000	-1.134000	0.000000
28	0	3	0.0000e+00	3.210000	-1.134000	-0.000000
29	0	1	0.0000e+00	2.790000	-2.268000	-0.000000
30	0	3	0.0000e+00	3.210000	-2.268000	-0.000000
31	0	1	0.0000e+00	5.790000	2.268000	0.000000
32	0	3	0.0000e+00	6.210000	2.268000	0.000000
33	0	1	0.0000e+00	5.790000	1.134000	0.000000
34	0	3	0.0000e+00	6.210000	1.134000	0.000000
35	0	1	0.0000e+00	5.790000	-0.000000	0.000000
36	0	3	0.0000e+00	6.210000	0.000000	0.000000
37	0	1	0.0000e+00	5.790000	-1.134000	0.000000
38	0	3	0.0000e+00	6.210000	-1.134000	-0.000000
39	0	1	0.0000e+00	5.790000	-2.268000	-0.000000
40	0	3	0.0000e+00	6.210000	-2.268000	-0.000000

Bonds

1	2	1	2
2	3	1	3
3	2	4	3
4	3	5	3
5	3	5	7
6	2	6	5
7	2	8	7
8	3	9	7
9	3	9	11
10	2	10	9
11	2	12	11
12	3	13	11
13	3	13	15
14	2	13	14
15	3	15	17
16	2	16	15
17	2	18	17
18	3	19	17
19	2	20	19
20	1	21	22
21	4	21	23
22	1	24	23
23	4	25	23
24	1	25	26
25	4	25	27
26	1	27	28
27	1	29	30
28	4	29	27
29	4	31	33
30	1	32	31
31	1	34	33
32	4	35	37
33	4	35	33
34	1	36	35
35	1	38	37
36	4	39	37
37	1	40	39

Angles

1	1	1	3	4
2	1	2	1	3
3	1	3	5	6
4	1	4	3	5
5	1	5	7	8
6	1	6	5	7
7	1	7	9	10
8	1	8	7	9
9	1	9	11	12
10	1	10	9	11
11	1	11	13	14
12	1	12	11	13
13	1	13	15	16
14	1	14	13	15
15	1	15	17	18
16	1	16	15	17
17	1	17	19	20
18	1	18	17	19
19	2	21	23	24
20	2	22	21	23
21	2	23	25	26
22	2	24	23	25
23	2	25	27	28
24	2	26	25	27
25	2	27	29	30
26	2	28	27	29
27	2	31	33	34
28	2	32	31	33
29	2	33	35	36
30	2	34	33	35
31	2	35	37	38
32	2	36	35	37
33	2	37	39	40
34	2	38	37	39

Dihedrals

1	4	1	3	5	7
2	12	1	3	5	7
3	2	1	3	5	7
4	6	1	3	5	7
5	3	2	1	3	4
6	7	2	1	3	4
7	8	2	1	3	4
8	1	2	1	3	4
9	4	3	5	7	9
10	12	3	5	7	9
11	2	3	5	7	9
12	6	3	5	7	9
13	3	4	3	5	6
14	7	4	3	5	6
15	8	4	3	5	6
16	1	4	3	5	6
17	4	5	7	9	11
18	12	5	7	9	11
19	2	5	7	9	11
20	6	5	7	9	11
21	3	6	5	7	8
22	7	6	5	7	8
23	8	6	5	7	8
24	1	6	5	7	8
25	4	7	9	11	13
26	12	7	9	11	13
27	2	7	9	11	13
28	6	7	9	11	13
29	3	8	7	9	10
30	7	8	7	9	10
31	8	8	7	9	10
32	1	8	7	9	10
33	4	9	11	13	15
34	12	9	11	13	15
35	2	9	11	13	15
36	6	9	11	13	15
37	3	10	9	11	12
38	7	10	9	11	12
39	8	10	9	11	12
40	1	10	9	11	12
41	4	11	13	15	17
42	12	11	13	15	17
43	2	11	13	15	17
44	6	11	13	15	17
45	3	12	11	13	14
46	7	12	11	13	14
47	8	12	11	13	14
48	1	12	11	13	14
49	4	13	15	17	19
50	12	13	15	17	19
51	2	13	15	17	19
52	6	13	15	17	19
53	3	14	13	15	16
54	7	14	13	15	16
55	8	14	13	15	16
56	1	14	13	15	16
57	3	16	15	17	18
58	7	16	15	17	18
59	8	16	15	17	18
60	1	16	15	17	18
61	3	18	17	19	20
62	7	18	17	19	20
63	8	18	17	19	20
64	1	18	17	19	20
65	9	22	21	23	24
66	10	22	21	23	24
67	5	22	21	23	24
68	11	22	21	23	24
69	9	24	23	25	26
70	10	24	23	25	26
71	5	24	23	25	26
72	11	24	23	25	26
73	9	26	25	27	28
74	10	26	25	27	28
75	5	26	25	27	28
76	11	26	25	27	28
77	9	28	27	29	30
78	10	28	27	29	30
79	5	28	27	29	30
80	11	28	27	29	30
81	9	32	31	33	34
82	10	32	31	33	34
83	5	32	31	33	34
84	11	32	31	33	34
85	9	34	33	35	36
86	10	34	33	35	36
87	5	34	33	35	36
88	11	34	33	35	36
89	9	36	35	37	38
90	10	36	35	37	38
91	5	36	35	37	38
92	11	36	35	37	38
93	9	38	37	39	40
94	10	38	37	39	40
95	5	38	37	39	40
96	11	38	37	39	40
